version 2
run Ping1-0-20150522-23:36:47-20584
attr configname Ping1
attr datetime 20150522-23:36:47
attr experiment Ping1
attr inifile omnetpp.ini
attr iterationvars ""
attr iterationvars2 $repetition=0
attr measurement ""
attr network Adhoc
attr processid 20584
attr repetition 0
attr replication #0
attr resultdir results
attr runnumber 0
attr seedset 0

vector 12  Adhoc.host[1].pingApp[0]  pingTxSeq:vector  ETV
attr interpolationmode  none
attr title  "ping tx seq, vector"
vector 14  Adhoc.host[1].networkLayer.arp  sentReq:vector  ETV
attr title  "ARP request sent, vector"
vector 16  Adhoc.host[1].networkLayer.arp  initiatedResolution:vector  ETV
attr title  "ARP initiated resolutions, vector"
vector 13  Adhoc.host[1].pingApp[0]  pingRxSeq:vector  ETV
attr interpolationmode  none
attr title  "ping rx seq, vector"
vector 9  Adhoc.host[1].pingApp[0]  rtt:vector  ETV
attr interpolationmode  none
attr title  "ping round-trip time, vector"
attr unit  s
vector 10  Adhoc.host[1].pingApp[0]  numLost:vector  ETV
attr interpolationmode  none
attr title  "pings lost, vector"
vector 5  Adhoc.host[0].networkLayer.arp  sentReq:vector  ETV
attr title  "ARP request sent, vector"
vector 7  Adhoc.host[0].networkLayer.arp  initiatedResolution:vector  ETV
attr title  "ARP initiated resolutions, vector"
vector 17  Adhoc.host[1].networkLayer.arp  failedResolution:vector  ETV
attr title  "ARP failed resolutions, vector"
5	8039	123.372620465555	1
5	34703	394.372620465555	1
5	66676	692.372620465555	1
7	8039	123.372620465555	1
7	34703	394.372620465555	1
7	66676	692.372620465555	1
9	161	3.375358465555	0.00398
9	292	4.374336465555	0.002958
9	423	5.374296465555	0.002918
9	554	6.374396465555	0.003018
9	684	7.374136465555	0.002758
9	815	8.374196465555	0.002818
9	946	9.374116465555	0.002738
9	1077	10.374556465555	0.003178
9	1207	11.374476465555	0.003098
9	4714	97.374556465555	0.003178
9	4845	98.374236465555	0.002858
9	4975	99.374596465555	0.003218
9	5106	100.374016465555	0.002638
9	5237	101.374176465555	0.002798
9	5364	102.374316465555	0.002938
9	5495	103.374056465555	0.002678
9	5626	104.374056465555	0.002678
9	5756	105.374336465555	0.002958
9	5887	106.374036465555	0.002658
9	6018	107.374036465555	0.002658
9	6149	108.374016465555	0.002638
9	6280	109.374236465555	0.002858
9	6410	110.374516465555	0.003138
9	6540	111.374616465555	0.003238
9	6670	112.374516465555	0.003138
9	6801	113.374196465555	0.002818
9	6932	114.374056465555	0.002678
9	7060	115.374096465555	0.002718
9	7191	116.374196465555	0.002818
9	7321	117.374616465555	0.003238
9	7452	118.374276465555	0.002898
9	7583	119.374276465555	0.002898
9	7713	120.374376465555	0.002998
9	7840	121.374076465555	0.002698
9	7970	122.374416465555	0.003038
9	8139	123.375458465555	0.00408
9	8269	124.374336465555	0.002958
9	8399	125.374596465555	0.003218
9	8530	126.374416465555	0.003038
9	8660	127.374616465555	0.003238
9	8790	128.374596465555	0.003218
9	9114	133.374296465555	0.002918
9	9244	134.374596465555	0.003218
9	9375	135.374416465555	0.003038
9	9506	136.374316465555	0.002938
9	9637	137.374156465555	0.002778
9	9765	138.374376465555	0.002998
9	9895	139.374456465555	0.003078
9	10025	140.374336465555	0.002958
9	10156	141.374116465555	0.002738
9	10287	142.374456465555	0.003078
9	10418	143.374036465555	0.002658
9	10549	144.374176465555	0.002798
9	10680	145.374236465555	0.002858
9	10807	146.374616465555	0.003238
9	10938	147.374276465555	0.002898
9	11068	148.374276465555	0.002898
9	11198	149.374596465555	0.003218
9	11325	150.374176465555	0.002798
9	11455	151.374436465555	0.003058
9	11585	152.374616465555	0.003238
9	11716	153.374156465555	0.002778
9	11847	154.374016465555	0.002638
9	11977	155.374596465555	0.003218
9	12107	156.374596465555	0.003218
9	12237	157.374476465555	0.003098
9	12367	158.374496465555	0.003118
9	12494	159.374076465555	0.002698
9	12622	160.374076465555	0.002698
9	12753	161.374096465555	0.002718
9	12883	162.374516465555	0.003138
9	13011	163.374376465555	0.002998
9	13141	164.374476465555	0.003098
9	13273	165.374556465555	0.003178
9	13401	166.374136465555	0.002758
9	13532	167.374096465555	0.002718
9	13663	168.374176465555	0.002798
9	13794	169.374176465555	0.002798
9	13924	170.374316465555	0.002938
9	14055	171.374236465555	0.002858
9	14186	172.374136465555	0.002758
9	14317	173.374176465555	0.002798
9	14448	174.374176465555	0.002798
9	14578	175.374276465555	0.002898
9	14705	176.374396465555	0.003018
9	14835	177.374036465555	0.002658
9	14966	178.374336465555	0.002958
9	15096	179.374036465555	0.002658
9	15227	180.374036465555	0.002658
9	15357	181.374496465555	0.003118
9	15488	182.373996465555	0.002618
9	15618	183.374516465555	0.003138
9	15749	184.374316465555	0.002938
9	15879	185.374616465555	0.003238
9	16010	186.373996465555	0.002618
9	16141	187.374176465555	0.002798
9	16272	188.374116465555	0.002738
9	16402	189.374616465555	0.003238
9	16533	190.374096465555	0.002718
9	19792	274.375658465555	0.00428
9	19923	275.374076465555	0.002698
9	20053	276.374496465555	0.003118
9	20183	277.374296465555	0.002918
9	20313	278.374156465555	0.002778
9	20444	279.374196465555	0.002818
9	20575	280.374436465555	0.003058
9	20705	281.374596465555	0.003218
9	20836	282.374316465555	0.002938
9	20967	283.374336465555	0.002958
9	21097	284.374236465555	0.002858
9	21227	285.374336465555	0.002958
9	21357	286.374436465555	0.003058
9	21488	287.374216465555	0.002838
9	21615	288.374516465555	0.003138
9	21745	289.374516465555	0.003138
9	21875	290.374576465555	0.003198
9	22005	291.374596465555	0.003218
9	22136	292.374236465555	0.002858
9	22266	293.374536465555	0.003158
9	22397	294.374156465555	0.002778
9	22528	295.374616465555	0.003238
9	22659	296.374276465555	0.002898
9	22790	297.374156465555	0.002778
9	22921	298.374176465555	0.002798
9	23052	299.374096465555	0.002718
9	23183	300.374236465555	0.002858
9	23314	301.374436465555	0.003058
9	23444	302.374196465555	0.002818
9	23574	303.374256465555	0.002878
9	23702	304.374236465555	0.002858
9	23830	305.374256465555	0.002878
9	23957	306.374456465555	0.003078
9	24087	307.374476465555	0.003098
9	24218	308.374136465555	0.002758
9	24348	309.374536465555	0.003158
9	24478	310.374556465555	0.003178
9	24608	311.374556465555	0.003178
9	24738	312.374376465555	0.002998
9	24868	313.374256465555	0.002878
9	24999	314.374036465555	0.002658
9	25129	315.374516465555	0.003138
9	25260	316.374236465555	0.002858
9	25390	317.374196465555	0.002818
9	25520	318.374396465555	0.003018
9	25651	319.373996465555	0.002618
9	25782	320.374296465555	0.002918
9	25913	321.374536465555	0.003158
9	26044	322.374116465555	0.002738
9	26174	323.374556465555	0.003178
9	26305	324.374376465555	0.002998
9	26436	325.374376465555	0.002998
9	26564	326.374016465555	0.002638
9	26695	327.374016465555	0.002638
9	26826	328.374516465555	0.003138
9	26957	329.374016465555	0.002638
9	27087	330.374496465555	0.003118
9	27217	331.374536465555	0.003158
9	27347	332.374256465555	0.002878
9	27477	333.374136465555	0.002758
9	27607	334.374616465555	0.003238
9	27738	335.374536465555	0.003158
9	27869	336.374496465555	0.003118
9	27999	337.374496465555	0.003118
9	28129	338.374596465555	0.003218
9	28260	339.374516465555	0.003138
9	28391	340.374016465555	0.002638
9	28522	341.374116465555	0.002738
9	28652	342.374556465555	0.003178
9	28782	343.374616465555	0.003238
9	28913	344.374036465555	0.002658
9	29044	345.374116465555	0.002738
9	29174	346.374316465555	0.002938
9	29305	347.374096465555	0.002718
9	29436	348.374556465555	0.003178
9	29567	349.373996465555	0.002618
9	29697	350.374456465555	0.003078
9	29825	351.374196465555	0.002818
9	29956	352.374236465555	0.002858
9	30086	353.374536465555	0.003158
9	30216	354.374496465555	0.003118
9	30347	355.373996465555	0.002618
9	30477	356.374436465555	0.003058
9	30608	357.374216465555	0.002838
9	31124	366.374216465555	0.002838
9	31255	367.374376465555	0.002998
9	31386	368.374096465555	0.002718
9	31517	369.374336465555	0.002958
9	31648	370.374456465555	0.003078
9	31779	371.374156465555	0.002778
9	31907	372.374056465555	0.002678
9	32038	373.373996465555	0.002618
9	32165	374.374596465555	0.003218
9	32296	375.374036465555	0.002658
9	32424	376.374276465555	0.002898
9	32555	377.374176465555	0.002798
9	32686	378.374156465555	0.002778
9	32817	379.374276465555	0.002898
9	32944	380.374076465555	0.002698
9	33074	381.374196465555	0.002818
9	33205	382.374196465555	0.002818
9	33335	383.374616465555	0.003238
9	33465	384.374416465555	0.003038
9	33592	385.374556465555	0.003178
9	33724	386.374056465555	0.002678
9	33854	387.374616465555	0.003238
9	33985	388.374176465555	0.002798
9	34112	389.374556465555	0.003178
9	34243	390.374116465555	0.002738
9	34374	391.374216465555	0.002838
9	34504	392.374596465555	0.003218
9	34634	393.374536465555	0.003158
9	34802	394.376038465555	0.00466
9	34933	395.374456465555	0.003078
9	35064	396.374156465555	0.002778
9	35195	397.374016465555	0.002638
9	35326	398.373996465555	0.002618
9	35456	399.374596465555	0.003218
9	35586	400.374076465555	0.002698
9	35717	401.374076465555	0.002698
9	35847	402.374576465555	0.003198
9	35977	403.374356465555	0.002978
9	36107	404.374456465555	0.003078
9	36237	405.374596465555	0.003218
9	36367	406.374616465555	0.003238
9	36498	407.374076465555	0.002698
9	36628	408.374296465555	0.002918
9	36758	409.374556465555	0.003178
9	36889	410.374436465555	0.003058
9	37020	411.374156465555	0.002778
9	37150	412.374496465555	0.003118
9	37280	413.374456465555	0.003078
9	37411	414.374236465555	0.002858
9	37542	415.374456465555	0.003078
9	37673	416.374036465555	0.002658
9	37804	417.374436465555	0.003058
9	37935	418.374416465555	0.003038
9	38066	419.374076465555	0.002698
9	38197	420.374076465555	0.002698
9	38327	421.374516465555	0.003138
9	38457	422.374276465555	0.002898
9	38588	423.374356465555	0.002978
9	38718	424.374496465555	0.003118
9	38848	425.374556465555	0.003178
9	38979	426.374536465555	0.003158
9	39106	427.374256465555	0.002878
9	39236	428.374296465555	0.002918
9	39366	429.374356465555	0.002978
9	39497	430.374076465555	0.002698
9	39627	431.374596465555	0.003218
9	39758	432.374316465555	0.002938
9	39888	433.374316465555	0.002938
9	40019	434.374136465555	0.002758
9	40149	435.374576465555	0.003198
9	40276	436.374156465555	0.002778
9	40406	437.374616465555	0.003238
9	40536	438.374176465555	0.002798
9	40667	439.373996465555	0.002618
9	40797	440.374256465555	0.002878
9	40928	441.374176465555	0.002798
9	41058	442.374556465555	0.003178
9	41189	443.374176465555	0.002798
9	41319	444.374496465555	0.003118
9	41450	445.374556465555	0.003178
9	41581	446.373996465555	0.002618
9	41712	447.374036465555	0.002658
9	41844	448.374416465555	0.003038
9	41972	449.374116465555	0.002738
9	42102	450.374256465555	0.002878
9	42232	451.374056465555	0.002678
9	42363	452.374076465555	0.002698
9	42494	453.374316465555	0.002938
9	42625	454.374016465555	0.002638
9	42756	455.374416465555	0.003038
9	42887	456.374016465555	0.002638
9	43018	457.374136465555	0.002758
9	43149	458.374196465555	0.002818
9	43279	459.374396465555	0.003018
9	43410	460.374156465555	0.002778
9	43537	461.374196465555	0.002818
9	43668	462.374356465555	0.002978
9	43796	463.374096465555	0.002718
9	43927	464.374216465555	0.002838
9	44058	465.374076465555	0.002698
9	44188	466.374396465555	0.003018
9	44319	467.374116465555	0.002738
9	44450	468.374296465555	0.002918
9	44581	469.374276465555	0.002898
9	44712	470.374056465555	0.002678
9	44842	471.374416465555	0.003038
9	44973	472.374376465555	0.002998
9	45103	473.374256465555	0.002878
9	45234	474.374036465555	0.002658
9	45365	475.374056465555	0.002678
9	45493	476.374176465555	0.002798
9	45623	477.374416465555	0.003038
9	45750	478.374336465555	0.002958
9	45880	479.374416465555	0.003038
9	46011	480.374016465555	0.002638
9	46141	481.374556465555	0.003178
9	46268	482.374076465555	0.002698
9	46398	483.374616465555	0.003238
9	46528	484.374416465555	0.003038
9	46656	485.373996465555	0.002618
9	46783	486.374316465555	0.002938
9	46913	487.374456465555	0.003078
9	47044	488.374456465555	0.003078
9	47175	489.374316465555	0.002938
9	47307	490.374216465555	0.002838
9	47438	491.374256465555	0.002878
9	47569	492.374556465555	0.003178
9	47700	493.374296465555	0.002918
9	47831	494.374076465555	0.002698
9	47962	495.374236465555	0.002858
9	48092	496.374116465555	0.002738
9	48223	497.374216465555	0.002838
9	48354	498.374316465555	0.002938
9	48485	499.374016465555	0.002638
9	48616	500.373996465555	0.002618
9	48744	501.373996465555	0.002618
9	48875	502.374076465555	0.002698
9	49005	503.374496465555	0.003118
9	49136	504.374296465555	0.002918
9	49264	505.374156465555	0.002778
9	49395	506.374256465555	0.002878
9	49526	507.374056465555	0.002678
9	49657	508.374036465555	0.002658
9	49788	509.374076465555	0.002698
9	51094	572.375478465555	0.0041
9	51225	573.374036465555	0.002658
9	51355	574.374556465555	0.003178
9	51486	575.374276465555	0.002898
9	51616	576.374496465555	0.003118
9	51746	577.374616465555	0.003238
9	51876	578.374216465555	0.002838
9	52006	579.374616465555	0.003238
9	52137	580.374116465555	0.002738
9	52268	581.374196465555	0.002818
9	52398	582.374356465555	0.002978
9	52529	583.374356465555	0.002978
9	52660	584.374356465555	0.002978
9	52791	585.374116465555	0.002738
9	52922	586.374036465555	0.002658
9	53053	587.374556465555	0.003178
9	53183	588.374496465555	0.003118
9	53314	589.374096465555	0.002718
9	53444	590.374576465555	0.003198
9	53571	591.374496465555	0.003118
9	53702	592.374016465555	0.002638
9	53832	593.374476465555	0.003098
9	53962	594.374476465555	0.003098
9	54093	595.374156465555	0.002778
9	54224	596.374096465555	0.002718
9	54352	597.374016465555	0.002638
9	54482	598.374136465555	0.002758
9	54613	599.374316465555	0.002938
9	54744	600.373996465555	0.002618
9	54874	601.374216465555	0.002838
9	55004	602.374496465555	0.003118
9	55135	603.374276465555	0.002898
9	55265	604.374436465555	0.003058
9	55396	605.374536465555	0.003158
9	55526	606.374596465555	0.003218
9	55657	607.374316465555	0.002938
9	55787	608.374476465555	0.003098
9	55917	609.374276465555	0.002898
9	56049	610.374056465555	0.002678
9	56180	611.374116465555	0.002738
9	56311	612.374056465555	0.002678
9	56442	613.374036465555	0.002658
9	56573	614.374076465555	0.002698
9	56703	615.374176465555	0.002798
9	56834	616.374296465555	0.002918
9	56966	617.374276465555	0.002898
9	57097	618.374316465555	0.002938
9	57228	619.374236465555	0.002858
9	57355	620.374076465555	0.002698
9	57486	621.374116465555	0.002738
9	57616	622.374536465555	0.003158
9	57747	623.374156465555	0.002778
9	57874	624.374476465555	0.003098
9	58005	625.374556465555	0.003178
9	58136	626.374256465555	0.002878
9	58267	627.374356465555	0.002978
9	58398	628.374276465555	0.002898
9	58528	629.374556465555	0.003178
9	58659	630.373996465555	0.002618
9	58789	631.374616465555	0.003238
9	58921	632.374016465555	0.002638
9	59052	633.373996465555	0.002618
9	59182	634.374236465555	0.002858
9	59312	635.374196465555	0.002818
9	59443	636.374096465555	0.002718
9	59570	637.374356465555	0.002978
9	59697	638.374316465555	0.002938
9	59827	639.374336465555	0.002958
9	59958	640.374036465555	0.002658
9	60088	641.374496465555	0.003118
9	60219	642.374536465555	0.003158
9	60349	643.374476465555	0.003098
9	60476	644.374256465555	0.002878
9	60606	645.374476465555	0.003098
9	60737	646.374116465555	0.002738
9	60868	647.374136465555	0.002758
9	60999	648.374396465555	0.003018
9	61129	649.374196465555	0.002818
9	61259	650.374516465555	0.003138
9	61390	651.374176465555	0.002798
9	61520	652.374516465555	0.003138
9	61651	653.374076465555	0.002698
9	61781	654.374496465555	0.003118
9	61912	655.374336465555	0.002958
9	62043	656.374016465555	0.002638
9	62174	657.374116465555	0.002738
9	62304	658.374196465555	0.002818
9	62425	659.374416465555	0.003038
9	62556	660.374396465555	0.003018
9	62687	661.374036465555	0.002658
9	62817	662.374416465555	0.003038
9	62948	663.374416465555	0.003038
9	63079	664.374296465555	0.002918
9	63209	665.374576465555	0.003198
9	63340	666.374336465555	0.002958
9	63471	667.374056465555	0.002678
9	63602	668.374516465555	0.003138
9	63733	669.374096465555	0.002718
9	63864	670.374036465555	0.002658
9	63995	671.374536465555	0.003158
9	64125	672.374376465555	0.002998
9	64256	673.374316465555	0.002938
9	64386	674.374556465555	0.003178
9	64516	675.374516465555	0.003138
9	64647	676.374296465555	0.002918
9	64778	677.374096465555	0.002718
9	64908	678.374516465555	0.003138
9	65040	679.374096465555	0.002718
9	65170	680.374476465555	0.003098
9	65301	681.374076465555	0.002698
9	65431	682.374416465555	0.003038
9	65562	683.374576465555	0.003198
9	65693	684.374036465555	0.002658
9	65823	685.374356465555	0.002978
9	65954	686.374396465555	0.003018
9	66085	687.374216465555	0.002838
9	66216	688.374236465555	0.002858
9	66347	689.374296465555	0.002918
9	66477	690.374436465555	0.003058
9	66607	691.374036465555	0.002658
9	66775	692.375538465555	0.00416
9	66902	693.374416465555	0.003038
9	67032	694.374256465555	0.002878
9	67163	695.374036465555	0.002658
9	67294	696.374356465555	0.002978
9	67424	697.374296465555	0.002918
9	67555	698.374336465555	0.002958
9	67686	699.374476465555	0.003098
9	67816	700.374296465555	0.002918
9	67947	701.374076465555	0.002698
9	68077	702.374236465555	0.002858
9	68208	703.374216465555	0.002838
9	68339	704.374216465555	0.002838
9	68470	705.374336465555	0.002958
9	68597	706.374416465555	0.003038
9	68727	707.374176465555	0.002798
9	68858	708.374476465555	0.003098
9	68989	709.374316465555	0.002938
9	69119	710.374296465555	0.002918
9	69249	711.374236465555	0.002858
9	69379	712.374516465555	0.003138
9	69510	713.374056465555	0.002678
9	69640	714.374176465555	0.002798
9	69771	715.374076465555	0.002698
9	69902	716.374176465555	0.002798
9	70033	717.374496465555	0.003118
9	70163	718.374096465555	0.002718
9	70290	719.374416465555	0.003038
9	70421	720.374276465555	0.002898
9	70551	721.374336465555	0.002958
9	70682	722.374556465555	0.003178
9	70812	723.374096465555	0.002718
9	70942	724.374416465555	0.003038
9	71072	725.374216465555	0.002838
9	71203	726.374276465555	0.002898
9	71334	727.374476465555	0.003098
9	71464	728.374396465555	0.003018
9	71595	729.374176465555	0.002798
9	71725	730.374516465555	0.003138
9	71856	731.374536465555	0.003158
9	71986	732.374496465555	0.003118
9	72116	733.374496465555	0.003118
9	72247	734.374036465555	0.002658
9	72377	735.374336465555	0.002958
9	72505	736.374316465555	0.002938
9	72635	737.374556465555	0.003178
9	72767	738.374116465555	0.002738
9	72898	739.374216465555	0.002838
9	73025	740.374596465555	0.003218
9	73156	741.374476465555	0.003098
9	73283	742.374236465555	0.002858
9	73414	743.374016465555	0.002638
9	73544	744.374296465555	0.002918
9	73674	745.374616465555	0.003238
9	73805	746.374416465555	0.003038
9	73936	747.374476465555	0.003098
9	74067	748.374196465555	0.002818
9	74197	749.374196465555	0.002818
9	74327	750.374356465555	0.002978
9	74457	751.374256465555	0.002878
9	74585	752.374096465555	0.002718
9	74716	753.374076465555	0.002698
9	74843	754.374596465555	0.003218
9	74974	755.374116465555	0.002738
9	75104	756.374536465555	0.003158
9	75231	757.374616465555	0.003238
9	75362	758.374036465555	0.002658
9	75492	759.374396465555	0.003018
9	75623	760.374436465555	0.003058
9	75754	761.374356465555	0.002978
9	75884	762.374376465555	0.002998
9	76014	763.374616465555	0.003238
9	76145	764.374296465555	0.002918
9	76275	765.374236465555	0.002858
9	76405	766.374336465555	0.002958
9	76536	767.374236465555	0.002858
9	76666	768.374176465555	0.002798
9	76797	769.374536465555	0.003158
9	76925	770.374416465555	0.003038
9	77056	771.374136465555	0.002758
9	77187	772.374096465555	0.002718
9	77317	773.374396465555	0.003018
9	77448	774.374376465555	0.002998
9	77578	775.374376465555	0.002998
9	77708	776.374616465555	0.003238
9	77835	777.374356465555	0.002978
9	77965	778.374416465555	0.003038
9	78095	779.374596465555	0.003218
9	78226	780.374356465555	0.002978
9	78356	781.374296465555	0.002918
9	78484	782.374016465555	0.002638
9	78615	783.374336465555	0.002958
9	78745	784.374356465555	0.002978
9	78876	785.374136465555	0.002758
9	79007	786.374116465555	0.002738
9	79137	787.374356465555	0.002978
9	79265	788.374196465555	0.002818
9	79395	789.374276465555	0.002898
9	79525	790.374336465555	0.002958
9	79656	791.374256465555	0.002878
9	79786	792.374576465555	0.003198
9	79917	793.374036465555	0.002658
9	80047	794.374556465555	0.003178
9	80177	795.374556465555	0.003178
9	80307	796.374156465555	0.002778
9	80439	797.374096465555	0.002718
9	80569	798.374436465555	0.003058
9	80700	799.374456465555	0.003078
9	80830	800.374516465555	0.003138
9	80961	801.374036465555	0.002658
9	81092	802.374156465555	0.002778
9	81223	803.374316465555	0.002938
9	81353	804.374356465555	0.002978
9	81483	805.374276465555	0.002898
9	81613	806.374096465555	0.002718
9	81744	807.374036465555	0.002658
9	81875	808.374536465555	0.003158
9	82005	809.374576465555	0.003198
9	82136	810.374376465555	0.002998
9	82267	811.374136465555	0.002758
9	82397	812.374416465555	0.003038
9	82567	813.374918465555	0.00354
9	82698	814.374336465555	0.002958
9	82829	815.374036465555	0.002658
9	82959	816.374416465555	0.003038
9	83090	817.374536465555	0.003158
9	83220	818.374276465555	0.002898
9	83350	819.374576465555	0.003198
9	83481	820.374276465555	0.002898
9	83612	821.374016465555	0.002638
9	83743	822.374036465555	0.002658
9	83874	823.374096465555	0.002718
9	84005	824.374196465555	0.002818
9	84136	825.374416465555	0.003038
9	84267	826.374256465555	0.002878
9	84398	827.374096465555	0.002718
9	84528	828.374316465555	0.002938
9	84658	829.374316465555	0.002938
9	84789	830.374036465555	0.002658
9	84919	831.374596465555	0.003218
9	85047	832.374216465555	0.002838
9	85174	833.374216465555	0.002838
9	85305	834.374116465555	0.002738
9	85436	835.374016465555	0.002638
9	85566	836.374476465555	0.003098
9	85697	837.374176465555	0.002798
9	85828	838.374096465555	0.002718
9	85956	839.374136465555	0.002758
9	86086	840.374216465555	0.002838
9	90485	978.375298465555	2.00392
9	90608	978.378870465555	1.007492
9	90732	978.381882465555	0.010504
9	90863	979.374076465555	0.002698
9	90993	980.374596465555	0.003218
9	91124	981.374236465555	0.002858
9	91254	982.374236465555	0.002858
9	91385	983.374456465555	0.003078
9	91515	984.374236465555	0.002858
9	91646	985.374576465555	0.003198
9	91776	986.374436465555	0.003058
9	91906	987.374236465555	0.002858
9	92036	988.374556465555	0.003178
9	92166	989.374576465555	0.003198
9	92296	990.374356465555	0.002978
9	92427	991.374456465555	0.003078
9	92558	992.374196465555	0.002818
9	92689	993.374016465555	0.002638
9	92820	994.374116465555	0.002738
9	92950	995.374276465555	0.002898
9	93081	996.374336465555	0.002958
9	93211	997.374616465555	0.003238
9	93342	998.374436465555	0.003058
9	93473	999.374196465555	0.002818
10	4714	97.374556465555	85
10	9114	133.374296465555	89
10	19792	274.375658465555	172
10	31124	366.374216465555	180
10	51094	572.375478465555	242
10	90485	978.375298465555	377
12	7	3.371378465555	0
12	176	4.371378465555	1
12	307	5.371378465555	2
12	438	6.371378465555	3
12	569	7.371378465555	4
12	699	8.371378465555	5
12	830	9.371378465555	6
12	961	10.371378465555	7
12	1092	11.371378465555	8
12	1222	12.371378465555	9
12	1270	13.371378465555	10
12	1318	14.371378465555	11
12	1366	15.371378465555	12
12	1414	16.371378465555	13
12	1462	17.371378465555	14
12	1510	18.371378465555	15
12	1558	19.371378465555	16
12	1606	20.371378465555	17
12	1654	21.371378465555	18
12	1702	22.371378465555	19
12	1750	23.371378465555	20
12	1798	24.371378465555	21
12	1846	25.371378465555	22
12	1894	26.371378465555	23
12	1942	27.371378465555	24
12	1990	28.371378465555	25
12	2038	29.371378465555	26
12	2086	30.371378465555	27
12	2134	31.371378465555	28
12	2182	32.371378465555	29
12	2230	33.371378465555	30
12	2278	34.371378465555	31
12	2326	35.371378465555	32
12	2374	36.371378465555	33
12	2422	37.371378465555	34
12	2470	38.371378465555	35
12	2508	39.371378465555	36
12	2544	40.371378465555	37
12	2580	41.371378465555	38
12	2616	42.371378465555	39
12	2652	43.371378465555	40
12	2688	44.371378465555	41
12	2724	45.371378465555	42
12	2760	46.371378465555	43
12	2796	47.371378465555	44
12	2832	48.371378465555	45
12	2868	49.371378465555	46
12	2904	50.371378465555	47
12	2941	51.371378465555	48
12	2977	52.371378465555	49
12	3013	53.371378465555	50
12	3049	54.371378465555	51
12	3085	55.371378465555	52
12	3121	56.371378465555	53
12	3157	57.371378465555	54
12	3193	58.371378465555	55
12	3229	59.371378465555	56
12	3265	60.371378465555	57
12	3302	61.371378465555	58
12	3338	62.371378465555	59
12	3374	63.371378465555	60
12	3410	64.371378465555	61
12	3446	65.371378465555	62
12	3482	66.371378465555	63
12	3518	67.371378465555	64
12	3554	68.371378465555	65
12	3590	69.371378465555	66
12	3626	70.371378465555	67
12	3662	71.371378465555	68
12	3698	72.371378465555	69
12	3734	73.371378465555	70
12	3770	74.371378465555	71
12	3806	75.371378465555	72
12	3842	76.371378465555	73
12	3878	77.371378465555	74
12	3914	78.371378465555	75
12	3950	79.371378465555	76
12	3986	80.371378465555	77
12	4022	81.371378465555	78
12	4058	82.371378465555	79
12	4094	83.371378465555	80
12	4130	84.371378465555	81
12	4166	85.371378465555	82
12	4202	86.371378465555	83
12	4238	87.371378465555	84
12	4274	88.371378465555	85
12	4310	89.371378465555	86
12	4346	90.371378465555	87
12	4382	91.371378465555	88
12	4418	92.371378465555	89
12	4454	93.371378465555	90
12	4490	94.371378465555	91
12	4526	95.371378465555	92
12	4562	96.371378465555	93
12	4599	97.371378465555	94
12	4729	98.371378465555	95
12	4860	99.371378465555	96
12	4990	100.371378465555	97
12	5121	101.371378465555	98
12	5249	102.371378465555	99
12	5379	103.371378465555	100
12	5510	104.371378465555	101
12	5641	105.371378465555	102
12	5771	106.371378465555	103
12	5902	107.371378465555	104
12	6033	108.371378465555	105
12	6164	109.371378465555	106
12	6295	110.371378465555	107
12	6425	111.371378465555	108
12	6555	112.371378465555	109
12	6685	113.371378465555	110
12	6816	114.371378465555	111
12	6944	115.371378465555	112
12	7075	116.371378465555	113
12	7206	117.371378465555	114
12	7336	118.371378465555	115
12	7467	119.371378465555	116
12	7598	120.371378465555	117
12	7725	121.371378465555	118
12	7855	122.371378465555	119
12	7985	123.371378465555	120
12	8154	124.371378465555	121
12	8284	125.371378465555	122
12	8414	126.371378465555	123
12	8545	127.371378465555	124
12	8675	128.371378465555	125
12	8805	129.371378465555	126
12	8854	130.371378465555	127
12	8903	131.371378465555	128
12	8951	132.371378465555	129
12	8999	133.371378465555	130
12	9129	134.371378465555	131
12	9259	135.371378465555	132
12	9390	136.371378465555	133
12	9521	137.371378465555	134
12	9649	138.371378465555	135
12	9780	139.371378465555	136
12	9910	140.371378465555	137
12	10040	141.371378465555	138
12	10171	142.371378465555	139
12	10302	143.371378465555	140
12	10433	144.371378465555	141
12	10564	145.371378465555	142
12	10692	146.371378465555	143
12	10822	147.371378465555	144
12	10953	148.371378465555	145
12	11083	149.371378465555	146
12	11210	150.371378465555	147
12	11340	151.371378465555	148
12	11470	152.371378465555	149
12	11600	153.371378465555	150
12	11731	154.371378465555	151
12	11862	155.371378465555	152
12	11992	156.371378465555	153
12	12122	157.371378465555	154
12	12252	158.371378465555	155
12	12382	159.371378465555	156
12	12506	160.371378465555	157
12	12637	161.371378465555	158
12	12768	162.371378465555	159
12	12895	163.371378465555	160
12	13026	164.371378465555	161
12	13157	165.371378465555	162
12	13285	166.371378465555	163
12	13416	167.371378465555	164
12	13547	168.371378465555	165
12	13678	169.371378465555	166
12	13809	170.371378465555	167
12	13939	171.371378465555	168
12	14070	172.371378465555	169
12	14201	173.371378465555	170
12	14332	174.371378465555	171
12	14463	175.371378465555	172
12	14593	176.371378465555	173
12	14720	177.371378465555	174
12	14850	178.371378465555	175
12	14981	179.371378465555	176
12	15111	180.371378465555	177
12	15242	181.371378465555	178
12	15372	182.371378465555	179
12	15503	183.371378465555	180
12	15633	184.371378465555	181
12	15764	185.371378465555	182
12	15894	186.371378465555	183
12	16025	187.371378465555	184
12	16156	188.371378465555	185
12	16287	189.371378465555	186
12	16417	190.371378465555	187
12	16548	191.371378465555	188
12	16596	192.371378465555	189
12	16644	193.371378465555	190
12	16693	194.371378465555	191
12	16742	195.371378465555	192
12	16790	196.371378465555	193
12	16838	197.371378465555	194
12	16886	198.371378465555	195
12	16934	199.371378465555	196
12	16983	200.371378465555	197
12	17031	201.371378465555	198
12	17079	202.371378465555	199
12	17127	203.371378465555	200
12	17175	204.371378465555	201
12	17223	205.371378465555	202
12	17271	206.371378465555	203
12	17319	207.371378465555	204
12	17367	208.371378465555	205
12	17415	209.371378465555	206
12	17463	210.371378465555	207
12	17511	211.371378465555	208
12	17559	212.371378465555	209
12	17607	213.371378465555	210
12	17655	214.371378465555	211
12	17703	215.371378465555	212
12	17751	216.371378465555	213
12	17799	217.371378465555	214
12	17847	218.371378465555	215
12	17895	219.371378465555	216
12	17943	220.371378465555	217
12	17991	221.371378465555	218
12	18039	222.371378465555	219
12	18087	223.371378465555	220
12	18135	224.371378465555	221
12	18183	225.371378465555	222
12	18231	226.371378465555	223
12	18279	227.371378465555	224
12	18327	228.371378465555	225
12	18375	229.371378465555	226
12	18423	230.371378465555	227
12	18472	231.371378465555	228
12	18520	232.371378465555	229
12	18568	233.371378465555	230
12	18617	234.371378465555	231
12	18665	235.371378465555	232
12	18713	236.371378465555	233
12	18761	237.371378465555	234
12	18809	238.371378465555	235
12	18857	239.371378465555	236
12	18905	240.371378465555	237
12	18953	241.371378465555	238
12	19001	242.371378465555	239
12	19049	243.371378465555	240
12	19097	244.371378465555	241
12	19114	245.371378465555	242
12	19132	246.371378465555	243
12	19150	247.371378465555	244
12	19168	248.371378465555	245
12	19186	249.371378465555	246
12	19204	250.371378465555	247
12	19222	251.371378465555	248
12	19240	252.371378465555	249
12	19258	253.371378465555	250
12	19276	254.371378465555	251
12	19294	255.371378465555	252